<?xml version="1.0"?>
<VTKFile type="UnstructuredGrid" version="0.1" byte_order="LittleEndian">
    <UnstructuredGrid>
<Piece NumberOfPoints="315" NumberOfCells="160">
<Points>
<DataArray type="Float32" NumberOfComponents="3" format="ascii">
0.000000 0.000000 0.000000 0.500000 0.000000 0.000000 1.000000 0.000000 0.000000 1.500000 0.000000 0.000000 2.000000 0.000000 0.000000 2.500000 0.000000 0.000000 3.000000 0.000000 0.000000 3.500000 0.000000 0.000000 4.000000 0.000000 0.000000 4.500000 0.000000 0.000000 5.000000 0.000000 0.000000 5.500000 0.000000 0.000000 6.000000 0.000000 0.000000 6.500000 0.000000 0.000000 7.000000 0.000000 0.000000 7.500000 0.000000 0.000000 8.000000 0.000000 0.000000 8.500000 0.000000 0.000000 9.000000 0.000000 0.000000 9.500000 0.000000 0.000000 10.000000 0.000000 0.000000 0.000000 0.500000 0.000000 0.500000 0.500000 0.000000 1.000000 0.500000 0.000000 1.500000 0.500000 0.000000 2.000000 0.500000 0.000000 2.500000 0.500000 0.000000 3.000000 0.500000 0.000000 3.500000 0.500000 0.000000 4.000000 0.500000 0.000000 4.500000 0.500000 0.000000 5.000000 0.500000 0.000000 5.500000 0.500000 0.000000 6.000000 0.500000 0.000000 6.500000 0.500000 0.000000 7.000000 0.500000 0.000000 7.500000 0.500000 0.000000 8.000000 0.500000 0.000000 8.500000 0.500000 0.000000 9.000000 0.500000 0.000000 9.500000 0.500000 0.000000 10.000000 0.500000 0.000000 0.000000 1.000000 0.000000 0.500000 1.000000 0.000000 1.000000 1.000000 0.000000 1.500000 1.000000 0.000000 2.000000 1.000000 0.000000 2.500000 1.000000 0.000000 3.000000 1.000000 0.000000 3.500000 1.000000 0.000000 4.000000 1.000000 0.000000 4.500000 1.000000 0.000000 5.000000 1.000000 0.000000 5.500000 1.000000 0.000000 6.000000 1.000000 0.000000 6.500000 1.000000 0.000000 7.000000 1.000000 0.000000 7.500000 1.000000 0.000000 8.000000 1.000000 0.000000 8.500000 1.000000 0.000000 9.000000 1.000000 0.000000 9.500000 1.000000 0.000000 10.000000 1.000000 0.000000 0.000000 1.500000 0.000000 0.500000 1.500000 0.000000 1.000000 1.500000 0.000000 1.500000 1.500000 0.000000 2.000000 1.500000 0.000000 2.500000 1.500000 0.000000 3.000000 1.500000 0.000000 3.500000 1.500000 0.000000 4.000000 1.500000 0.000000 4.500000 1.500000 0.000000 5.000000 1.500000 0.000000 5.500000 1.500000 0.000000 6.000000 1.500000 0.000000 6.500000 1.500000 0.000000 7.000000 1.500000 0.000000 7.500000 1.500000 0.000000 8.000000 1.500000 0.000000 8.500000 1.500000 0.000000 9.000000 1.500000 0.000000 9.500000 1.500000 0.000000 10.000000 1.500000 0.000000 0.000000 2.000000 0.000000 0.500000 2.000000 0.000000 1.000000 2.000000 0.000000 1.500000 2.000000 0.000000 2.000000 2.000000 0.000000 2.500000 2.000000 0.000000 3.000000 2.000000 0.000000 3.500000 2.000000 0.000000 4.000000 2.000000 0.000000 4.500000 2.000000 0.000000 5.000000 2.000000 0.000000 5.500000 2.000000 0.000000 6.000000 2.000000 0.000000 6.500000 2.000000 0.000000 7.000000 2.000000 0.000000 7.500000 2.000000 0.000000 8.000000 2.000000 0.000000 8.500000 2.000000 0.000000 9.000000 2.000000 0.000000 9.500000 2.000000 0.000000 10.000000 2.000000 0.000000 0.000000 0.000000 0.500000 0.500000 0.000000 0.500000 1.000000 0.000000 0.500000 1.500000 0.000000 0.500000 2.000000 0.000000 0.500000 2.500000 0.000000 0.500000 3.000000 0.000000 0.500000 3.500000 0.000000 0.500000 4.000000 0.000000 0.500000 4.500000 0.000000 0.500000 5.000000 0.000000 0.500000 5.500000 0.000000 0.500000 6.000000 0.000000 0.500000 6.500000 0.000000 0.500000 7.000000 0.000000 0.500000 7.500000 0.000000 0.500000 8.000000 0.000000 0.500000 8.500000 0.000000 0.500000 9.000000 0.000000 0.500000 9.500000 0.000000 0.500000 10.000000 0.000000 0.500000 0.000000 0.500000 0.500000 0.500000 0.500000 0.500000 1.000000 0.500000 0.500000 1.500000 0.500000 0.500000 2.000000 0.500000 0.500000 2.500000 0.500000 0.500000 3.000000 0.500000 0.500000 3.500000 0.500000 0.500000 4.000000 0.500000 0.500000 4.500000 0.500000 0.500000 5.000000 0.500000 0.500000 5.500000 0.500000 0.500000 6.000000 0.500000 0.500000 6.500000 0.500000 0.500000 7.000000 0.500000 0.500000 7.500000 0.500000 0.500000 8.000000 0.500000 0.500000 8.500000 0.500000 0.500000 9.000000 0.500000 0.500000 9.500000 0.500000 0.500000 10.000000 0.500000 0.500000 0.000000 1.000000 0.500000 0.500000 1.000000 0.500000 1.000000 1.000000 0.500000 1.500000 1.000000 0.500000 2.000000 1.000000 0.500000 2.500000 1.000000 0.500000 3.000000 1.000000 0.500000 3.500000 1.000000 0.500000 4.000000 1.000000 0.500000 4.500000 1.000000 0.500000 5.000000 1.000000 0.500000 5.500000 1.000000 0.500000 6.000000 1.000000 0.500000 6.500000 1.000000 0.500000 7.000000 1.000000 0.500000 7.500000 1.000000 0.500000 8.000000 1.000000 0.500000 8.500000 1.000000 0.500000 9.000000 1.000000 0.500000 9.500000 1.000000 0.500000 10.000000 1.000000 0.500000 0.000000 1.500000 0.500000 0.500000 1.500000 0.500000 1.000000 1.500000 0.500000 1.500000 1.500000 0.500000 2.000000 1.500000 0.500000 2.500000 1.500000 0.500000 3.000000 1.500000 0.500000 3.500000 1.500000 0.500000 4.000000 1.500000 0.500000 4.500000 1.500000 0.500000 5.000000 1.500000 0.500000 5.500000 1.500000 0.500000 6.000000 1.500000 0.500000 6.500000 1.500000 0.500000 7.000000 1.500000 0.500000 7.500000 1.500000 0.500000 8.000000 1.500000 0.500000 8.500000 1.500000 0.500000 9.000000 1.500000 0.500000 9.500000 1.500000 0.500000 10.000000 1.500000 0.500000 0.000000 2.000000 0.500000 0.500000 2.000000 0.500000 1.000000 2.000000 0.500000 1.500000 2.000000 0.500000 2.000000 2.000000 0.500000 2.500000 2.000000 0.500000 3.000000 2.000000 0.500000 3.500000 2.000000 0.500000 4.000000 2.000000 0.500000 4.500000 2.000000 0.500000 5.000000 2.000000 0.500000 5.500000 2.000000 0.500000 6.000000 2.000000 0.500000 6.500000 2.000000 0.500000 7.000000 2.000000 0.500000 7.500000 2.000000 0.500000 8.000000 2.000000 0.500000 8.500000 2.000000 0.500000 9.000000 2.000000 0.500000 9.500000 2.000000 0.500000 10.000000 2.000000 0.500000 0.000000 0.000000 1.000000 0.500000 0.000000 1.000000 1.000000 0.000000 1.000000 1.500000 0.000000 1.000000 2.000000 0.000000 1.000000 2.500000 0.000000 1.000000 3.000000 0.000000 1.000000 3.500000 0.000000 1.000000 4.000000 0.000000 1.000000 4.500000 0.000000 1.000000 5.000000 0.000000 1.000000 5.500000 0.000000 1.000000 6.000000 0.000000 1.000000 6.500000 0.000000 1.000000 7.000000 0.000000 1.000000 7.500000 0.000000 1.000000 8.000000 0.000000 1.000000 8.500000 0.000000 1.000000 9.000000 0.000000 1.000000 9.500000 0.000000 1.000000 10.000000 0.000000 1.000000 0.000000 0.500000 1.000000 0.500000 0.500000 1.000000 1.000000 0.500000 1.000000 1.500000 0.500000 1.000000 2.000000 0.500000 1.000000 2.500000 0.500000 1.000000 3.000000 0.500000 1.000000 3.500000 0.500000 1.000000 4.000000 0.500000 1.000000 4.500000 0.500000 1.000000 5.000000 0.500000 1.000000 5.500000 0.500000 1.000000 6.000000 0.500000 1.000000 6.500000 0.500000 1.000000 7.000000 0.500000 1.000000 7.500000 0.500000 1.000000 8.000000 0.500000 1.000000 8.500000 0.500000 1.000000 9.000000 0.500000 1.000000 9.500000 0.500000 1.000000 10.000000 0.500000 1.000000 0.000000 1.000000 1.000000 0.500000 1.000000 1.000000 1.000000 1.000000 1.000000 1.500000 1.000000 1.000000 2.000000 1.000000 1.000000 2.500000 1.000000 1.000000 3.000000 1.000000 1.000000 3.500000 1.000000 1.000000 4.000000 1.000000 1.000000 4.500000 1.000000 1.000000 5.000000 1.000000 1.000000 5.500000 1.000000 1.000000 6.000000 1.000000 1.000000 6.500000 1.000000 1.000000 7.000000 1.000000 1.000000 7.500000 1.000000 1.000000 8.000000 1.000000 1.000000 8.500000 1.000000 1.000000 9.000000 1.000000 1.000000 9.500000 1.000000 1.000000 10.000000 1.000000 1.000000 0.000000 1.500000 1.000000 0.500000 1.500000 1.000000 1.000000 1.500000 1.000000 1.500000 1.500000 1.000000 2.000000 1.500000 1.000000 2.500000 1.500000 1.000000 3.000000 1.500000 1.000000 3.500000 1.500000 1.000000 4.000000 1.500000 1.000000 4.500000 1.500000 1.000000 5.000000 1.500000 1.000000 5.500000 1.500000 1.000000 6.000000 1.500000 1.000000 6.500000 1.500000 1.000000 7.000000 1.500000 1.000000 7.500000 1.500000 1.000000 8.000000 1.500000 1.000000 8.500000 1.500000 1.000000 9.000000 1.500000 1.000000 9.500000 1.500000 1.000000 10.000000 1.500000 1.000000 0.000000 2.000000 1.000000 0.500000 2.000000 1.000000 1.000000 2.000000 1.000000 1.500000 2.000000 1.000000 2.000000 2.000000 1.000000 2.500000 2.000000 1.000000 3.000000 2.000000 1.000000 3.500000 2.000000 1.000000 4.000000 2.000000 1.000000 4.500000 2.000000 1.000000 5.000000 2.000000 1.000000 5.500000 2.000000 1.000000 6.000000 2.000000 1.000000 6.500000 2.000000 1.000000 7.000000 2.000000 1.000000 7.500000 2.000000 1.000000 8.000000 2.000000 1.000000 8.500000 2.000000 1.000000 9.000000 2.000000 1.000000 9.500000 2.000000 1.000000 10.000000 2.000000 1.000000 
</DataArray>
</Points>
<Cells>
<DataArray type="Int32" Name="connectivity" format="ascii">
0 1 22 21 105 106 127 126 1 2 23 22 106 107 128 127 2 3 24 23 107 108 129 128 3 4 25 24 108 109 130 129 4 5 26 25 109 110 131 130 5 6 27 26 110 111 132 131 6 7 28 27 111 112 133 132 7 8 29 28 112 113 134 133 8 9 30 29 113 114 135 134 9 10 31 30 114 115 136 135 10 11 32 31 115 116 137 136 11 12 33 32 116 117 138 137 12 13 34 33 117 118 139 138 13 14 35 34 118 119 140 139 14 15 36 35 119 120 141 140 15 16 37 36 120 121 142 141 16 17 38 37 121 122 143 142 17 18 39 38 122 123 144 143 18 19 40 39 123 124 145 144 19 20 41 40 124 125 146 145 21 22 43 42 126 127 148 147 22 23 44 43 127 128 149 148 23 24 45 44 128 129 150 149 24 25 46 45 129 130 151 150 25 26 47 46 130 131 152 151 26 27 48 47 131 132 153 152 27 28 49 48 132 133 154 153 28 29 50 49 133 134 155 154 29 30 51 50 134 135 156 155 30 31 52 51 135 136 157 156 31 32 53 52 136 137 158 157 32 33 54 53 137 138 159 158 33 34 55 54 138 139 160 159 34 35 56 55 139 140 161 160 35 36 57 56 140 141 162 161 36 37 58 57 141 142 163 162 37 38 59 58 142 143 164 163 38 39 60 59 143 144 165 164 39 40 61 60 144 145 166 165 40 41 62 61 145 146 167 166 42 43 64 63 147 148 169 168 43 44 65 64 148 149 170 169 44 45 66 65 149 150 171 170 45 46 67 66 150 151 172 171 46 47 68 67 151 152 173 172 47 48 69 68 152 153 174 173 48 49 70 69 153 154 175 174 49 50 71 70 154 155 176 175 50 51 72 71 155 156 177 176 51 52 73 72 156 157 178 177 52 53 74 73 157 158 179 178 53 54 75 74 158 159 180 179 54 55 76 75 159 160 181 180 55 56 77 76 160 161 182 181 56 57 78 77 161 162 183 182 57 58 79 78 162 163 184 183 58 59 80 79 163 164 185 184 59 60 81 80 164 165 186 185 60 61 82 81 165 166 187 186 61 62 83 82 166 167 188 187 63 64 85 84 168 169 190 189 64 65 86 85 169 170 191 190 65 66 87 86 170 171 192 191 66 67 88 87 171 172 193 192 67 68 89 88 172 173 194 193 68 69 90 89 173 174 195 194 69 70 91 90 174 175 196 195 70 71 92 91 175 176 197 196 71 72 93 92 176 177 198 197 72 73 94 93 177 178 199 198 73 74 95 94 178 179 200 199 74 75 96 95 179 180 201 200 75 76 97 96 180 181 202 201 76 77 98 97 181 182 203 202 77 78 99 98 182 183 204 203 78 79 100 99 183 184 205 204 79 80 101 100 184 185 206 205 80 81 102 101 185 186 207 206 81 82 103 102 186 187 208 207 82 83 104 103 187 188 209 208 105 106 127 126 210 211 232 231 106 107 128 127 211 212 233 232 107 108 129 128 212 213 234 233 108 109 130 129 213 214 235 234 109 110 131 130 214 215 236 235 110 111 132 131 215 216 237 236 111 112 133 132 216 217 238 237 112 113 134 133 217 218 239 238 113 114 135 134 218 219 240 239 114 115 136 135 219 220 241 240 115 116 137 136 220 221 242 241 116 117 138 137 221 222 243 242 117 118 139 138 222 223 244 243 118 119 140 139 223 224 245 244 119 120 141 140 224 225 246 245 120 121 142 141 225 226 247 246 121 122 143 142 226 227 248 247 122 123 144 143 227 228 249 248 123 124 145 144 228 229 250 249 124 125 146 145 229 230 251 250 126 127 148 147 231 232 253 252 127 128 149 148 232 233 254 253 128 129 150 149 233 234 255 254 129 130 151 150 234 235 256 255 130 131 152 151 235 236 257 256 131 132 153 152 236 237 258 257 132 133 154 153 237 238 259 258 133 134 155 154 238 239 260 259 134 135 156 155 239 240 261 260 135 136 157 156 240 241 262 261 136 137 158 157 241 242 263 262 137 138 159 158 242 243 264 263 138 139 160 159 243 244 265 264 139 140 161 160 244 245 266 265 140 141 162 161 245 246 267 266 141 142 163 162 246 247 268 267 142 143 164 163 247 248 269 268 143 144 165 164 248 249 270 269 144 145 166 165 249 250 271 270 145 146 167 166 250 251 272 271 147 148 169 168 252 253 274 273 148 149 170 169 253 254 275 274 149 150 171 170 254 255 276 275 150 151 172 171 255 256 277 276 151 152 173 172 256 257 278 277 152 153 174 173 257 258 279 278 153 154 175 174 258 259 280 279 154 155 176 175 259 260 281 280 155 156 177 176 260 261 282 281 156 157 178 177 261 262 283 282 157 158 179 178 262 263 284 283 158 159 180 179 263 264 285 284 159 160 181 180 264 265 286 285 160 161 182 181 265 266 287 286 161 162 183 182 266 267 288 287 162 163 184 183 267 268 289 288 163 164 185 184 268 269 290 289 164 165 186 185 269 270 291 290 165 166 187 186 270 271 292 291 166 167 188 187 271 272 293 292 168 169 190 189 273 274 295 294 169 170 191 190 274 275 296 295 170 171 192 191 275 276 297 296 171 172 193 192 276 277 298 297 172 173 194 193 277 278 299 298 173 174 195 194 278 279 300 299 174 175 196 195 279 280 301 300 175 176 197 196 280 281 302 301 176 177 198 197 281 282 303 302 177 178 199 198 282 283 304 303 178 179 200 199 283 284 305 304 179 180 201 200 284 285 306 305 180 181 202 201 285 286 307 306 181 182 203 202 286 287 308 307 182 183 204 203 287 288 309 308 183 184 205 204 288 289 310 309 184 185 206 205 289 290 311 310 185 186 207 206 290 291 312 311 186 187 208 207 291 292 313 312 187 188 209 208 292 293 314 313 
</DataArray>
<DataArray type="Int32" Name="offsets" format="ascii">
8 16 24 32 40 48 56 64 72 80 88 96 104 112 120 128 136 144 152 160 168 176 184 192 200 208 216 224 232 240 248 256 264 272 280 288 296 304 312 320 328 336 344 352 360 368 376 384 392 400 408 416 424 432 440 448 456 464 472 480 488 496 504 512 520 528 536 544 552 560 568 576 584 592 600 608 616 624 632 640 648 656 664 672 680 688 696 704 712 720 728 736 744 752 760 768 776 784 792 800 808 816 824 832 840 848 856 864 872 880 888 896 904 912 920 928 936 944 952 960 968 976 984 992 1000 1008 1016 1024 1032 1040 1048 1056 1064 1072 1080 1088 1096 1104 1112 1120 1128 1136 1144 1152 1160 1168 1176 1184 1192 1200 1208 1216 1224 1232 1240 1248 1256 1264 1272 1280 
</DataArray>
<DataArray type="UInt8" Name="types" format="ascii">
12 12 12 12 12 12 12 12 12 12 12 12 12 12 12 12 12 12 12 12 12 12 12 12 12 12 12 12 12 12 12 12 12 12 12 12 12 12 12 12 12 12 12 12 12 12 12 12 12 12 12 12 12 12 12 12 12 12 12 12 12 12 12 12 12 12 12 12 12 12 12 12 12 12 12 12 12 12 12 12 12 12 12 12 12 12 12 12 12 12 12 12 12 12 12 12 12 12 12 12 12 12 12 12 12 12 12 12 12 12 12 12 12 12 12 12 12 12 12 12 12 12 12 12 12 12 12 12 12 12 12 12 12 12 12 12 12 12 12 12 12 12 12 12 12 12 12 12 12 12 12 12 12 12 12 12 12 12 12 12 
</DataArray>
</Cells>
<PointData>
<DataArray type="Float32" Name="U " NumberOfComponents="3 " format="ascii">
0.000000 0.000000 0.000000 0.000667 0.000341 0.000222 0.001317 0.000880 0.000201 0.001949 0.001762 0.000188 0.002547 0.002948 0.000177 0.003108 0.004426 0.000166 0.003632 0.006176 0.000155 0.004118 0.008180 0.000144 0.004567 0.010420 0.000133 0.004979 0.012879 0.000122 0.005354 0.015537 0.000110 0.005691 0.018376 0.000099 0.005992 0.021379 0.000088 0.006254 0.024528 0.000077 0.006480 0.027803 0.000066 0.006668 0.031186 0.000055 0.006821 0.034658 0.000045 0.006940 0.038201 0.000036 0.007034 0.041803 0.000035 0.007107 0.045444 0.000018 0.007185 0.049507 -0.000086 0.000000 0.000000 0.000000 0.000299 0.000171 0.000108 0.000633 0.000738 0.000100 0.000951 0.001621 0.000092 0.001249 0.002816 0.000086 0.001528 0.004300 0.000081 0.001788 0.006057 0.000076 0.002029 0.008069 0.000070 0.002252 0.010316 0.000065 0.002455 0.012781 0.000059 0.002639 0.015447 0.000054 0.002804 0.018293 0.000049 0.002950 0.021304 0.000043 0.003077 0.024459 0.000038 0.003185 0.027742 0.000032 0.003274 0.031133 0.000027 0.003344 0.034613 0.000022 0.003395 0.038165 0.000017 0.003422 0.041771 0.000010 0.003406 0.045450 -0.000004 0.003414 0.049167 -0.000033 0.000000 0.000000 0.000000 -0.000001 0.000128 -0.000000 -0.000002 0.000684 -0.000000 -0.000003 0.001574 -0.000000 -0.000005 0.002770 -0.000000 -0.000007 0.004257 -0.000000 -0.000010 0.006016 -0.000000 -0.000014 0.008028 -0.000000 -0.000019 0.010278 -0.000000 -0.000025 0.012745 -0.000000 -0.000032 0.015411 -0.000000 -0.000039 0.018260 0.000000 -0.000048 0.021272 0.000000 -0.000057 0.024429 0.000000 -0.000067 0.027714 0.000000 -0.000078 0.031107 0.000000 -0.000090 0.034592 0.000000 -0.000107 0.038149 -0.000000 -0.000132 0.041765 -0.000003 -0.000153 0.045417 -0.000009 -0.000158 0.049037 -0.000025 0.000000 0.000000 0.000000 -0.000300 0.000172 -0.000108 -0.000635 0.000737 -0.000100 -0.000956 0.001619 -0.000092 -0.001257 0.002812 -0.000087 -0.001541 0.004295 -0.000081 -0.001807 0.006050 -0.000076 -0.002056 0.008060 -0.000070 -0.002288 0.010305 -0.000065 -0.002503 0.012768 -0.000059 -0.002700 0.015431 -0.000054 -0.002880 0.018276 -0.000048 -0.003043 0.021284 -0.000043 -0.003189 0.024438 -0.000038 -0.003317 0.027719 -0.000032 -0.003428 0.031110 -0.000027 -0.003521 0.034593 -0.000021 -0.003598 0.038150 -0.000015 -0.003657 0.041760 -0.000011 -0.003695 0.045388 -0.000009 -0.003712 0.048984 -0.000008 0.000000 0.000000 0.000000 -0.000666 0.000341 -0.000221 -0.001316 0.000879 -0.000200 -0.001950 0.001758 -0.000188 -0.002550 0.002941 -0.000177 -0.003115 0.004415 -0.000166 -0.003644 0.006161 -0.000155 -0.004138 0.008162 -0.000143 -0.004597 0.010398 -0.000132 -0.005020 0.012852 -0.000121 -0.005409 0.015506 -0.000110 -0.005761 0.018342 -0.000099 -0.006079 0.021341 -0.000088 -0.006361 0.024485 -0.000077 -0.006608 0.027757 -0.000066 -0.006820 0.031139 -0.000055 -0.006994 0.034614 -0.000043 -0.007129 0.038162 -0.000030 -0.007221 0.041761 -0.000017 -0.007268 0.045373 -0.000007 -0.007287 0.048964 -0.000002 0.000000 0.000000 0.000000 0.000634 0.000391 -0.000000 0.001320 0.000935 0.000000 0.001954 0.001809 0.000000 0.002551 0.002993 0.000000 0.003112 0.004468 0.000000 0.003636 0.006215 0.000000 0.004122 0.008217 0.000000 0.004572 0.010454 0.000000 0.004984 0.012910 0.000000 0.005358 0.015565 0.000000 0.005696 0.018402 0.000000 0.005996 0.021402 0.000000 0.006259 0.024547 0.000000 0.006484 0.027819 0.000000 0.006673 0.031200 0.000000 0.006825 0.034670 0.000000 0.006943 0.038211 0.000000 0.007039 0.041812 0.000000 0.007128 0.045485 0.000000 0.007179 0.049287 0.000000 0.000000 0.000000 0.000000 0.000278 0.000221 -0.000000 0.000634 0.000787 0.000000 0.000954 0.001669 0.000000 0.001252 0.002860 0.000000 0.001531 0.004342 0.000000 0.001791 0.006096 0.000000 0.002032 0.008105 0.000000 0.002254 0.010349 0.000000 0.002457 0.012812 0.000000 0.002642 0.015474 0.000000 0.002806 0.018318 0.000000 0.002952 0.021326 0.000000 0.003079 0.024479 0.000000 0.003187 0.027758 0.000000 0.003276 0.031147 0.000000 0.003347 0.034625 0.000000 0.003397 0.038174 0.000000 0.003426 0.041781 0.000000 0.003430 0.045450 0.000000 0.003439 0.049152 0.000000 0.000000 0.000000 0.000000 -0.000001 0.000176 0.000000 -0.000002 0.000732 0.000000 -0.000003 0.001621 0.000000 -0.000005 0.002814 0.000000 -0.000007 0.004298 0.000000 -0.000011 0.006054 0.000000 -0.000015 0.008064 0.000000 -0.000019 0.010310 0.000000 -0.000025 0.012774 0.000000 -0.000032 0.015438 0.000000 -0.000040 0.018284 0.000000 -0.000048 0.021294 0.000000 -0.000057 0.024448 0.000000 -0.000067 0.027730 0.000000 -0.000078 0.031121 0.000000 -0.000090 0.034603 0.000000 -0.000107 0.038158 0.000000 -0.000129 0.041769 0.000000 -0.000149 0.045416 0.000000 -0.000152 0.049035 0.000000 0.000000 0.000000 0.000000 -0.000279 0.000221 -0.000000 -0.000637 0.000786 0.000000 -0.000959 0.001666 0.000000 -0.001260 0.002856 0.000000 -0.001544 0.004336 0.000000 -0.001810 0.006089 0.000000 -0.002059 0.008095 0.000000 -0.002291 0.010338 0.000000 -0.002506 0.012798 0.000000 -0.002703 0.015459 0.000000 -0.002883 0.018301 0.000000 -0.003046 0.021306 0.000000 -0.003192 0.024457 0.000000 -0.003320 0.027736 0.000000 -0.003431 0.031124 0.000000 -0.003524 0.034604 0.000000 -0.003601 0.038157 0.000000 -0.003658 0.041763 0.000000 -0.003695 0.045387 0.000000 -0.003712 0.048980 0.000000 0.000000 0.000000 0.000000 -0.000633 0.000390 -0.000000 -0.001320 0.000933 0.000000 -0.001955 0.001805 0.000000 -0.002555 0.002986 0.000000 -0.003119 0.004457 0.000000 -0.003648 0.006201 0.000000 -0.004143 0.008198 0.000000 -0.004601 0.010432 0.000000 -0.005025 0.012883 0.000000 -0.005413 0.015534 0.000000 -0.005766 0.018367 0.000000 -0.006084 0.021363 0.000000 -0.006366 0.024505 0.000000 -0.006613 0.027774 0.000000 -0.006824 0.031154 0.000000 -0.006999 0.034625 0.000000 -0.007134 0.038170 0.000000 -0.007225 0.041763 0.000000 -0.007270 0.045371 0.000000 -0.007289 0.048961 0.000000 0.000000 0.000000 0.000000 0.000667 0.000341 -0.000222 0.001317 0.000880 -0.000201 0.001949 0.001762 -0.000188 0.002547 0.002948 -0.000177 0.003108 0.004426 -0.000166 0.003632 0.006176 -0.000155 0.004118 0.008180 -0.000144 0.004567 0.010420 -0.000132 0.004979 0.012879 -0.000121 0.005354 0.015537 -0.000110 0.005691 0.018376 -0.000099 0.005992 0.021379 -0.000088 0.006254 0.024528 -0.000077 0.006480 0.027803 -0.000066 0.006668 0.031186 -0.000055 0.006821 0.034658 -0.000045 0.006940 0.038201 -0.000036 0.007034 0.041803 -0.000035 0.007107 0.045444 -0.000018 0.007185 0.049507 0.000086 0.000000 0.000000 0.000000 0.000299 0.000171 -0.000108 0.000633 0.000738 -0.000100 0.000951 0.001621 -0.000092 0.001249 0.002816 -0.000086 0.001528 0.004300 -0.000081 0.001788 0.006057 -0.000076 0.002029 0.008069 -0.000070 0.002252 0.010316 -0.000065 0.002455 0.012781 -0.000059 0.002639 0.015447 -0.000054 0.002804 0.018293 -0.000048 0.002950 0.021304 -0.000043 0.003077 0.024459 -0.000038 0.003185 0.027742 -0.000032 0.003274 0.031133 -0.000027 0.003344 0.034613 -0.000022 0.003395 0.038165 -0.000017 0.003422 0.041771 -0.000010 0.003406 0.045450 0.000004 0.003414 0.049167 0.000033 0.000000 0.000000 0.000000 -0.000001 0.000128 0.000000 -0.000002 0.000684 0.000000 -0.000003 0.001574 0.000000 -0.000005 0.002770 0.000000 -0.000007 0.004257 0.000000 -0.000010 0.006016 0.000000 -0.000014 0.008028 0.000000 -0.000019 0.010278 0.000000 -0.000025 0.012745 0.000000 -0.000032 0.015411 0.000000 -0.000039 0.018260 0.000000 -0.000048 0.021272 0.000000 -0.000057 0.024429 0.000000 -0.000067 0.027714 0.000000 -0.000078 0.031107 -0.000000 -0.000090 0.034592 -0.000000 -0.000107 0.038149 0.000001 -0.000132 0.041765 0.000003 -0.000153 0.045417 0.000010 -0.000158 0.049037 0.000025 0.000000 0.000000 0.000000 -0.000300 0.000172 0.000108 -0.000635 0.000737 0.000101 -0.000956 0.001619 0.000092 -0.001257 0.002812 0.000087 -0.001541 0.004295 0.000081 -0.001807 0.006050 0.000076 -0.002056 0.008060 0.000070 -0.002288 0.010305 0.000065 -0.002503 0.012768 0.000059 -0.002700 0.015431 0.000054 -0.002880 0.018276 0.000049 -0.003043 0.021284 0.000043 -0.003189 0.024438 0.000038 -0.003317 0.027719 0.000032 -0.003428 0.031110 0.000027 -0.003521 0.034593 0.000021 -0.003598 0.038150 0.000016 -0.003657 0.041760 0.000011 -0.003695 0.045388 0.000009 -0.003712 0.048984 0.000008 0.000000 0.000000 0.000000 -0.000666 0.000341 0.000221 -0.001316 0.000879 0.000200 -0.001950 0.001758 0.000188 -0.002550 0.002941 0.000177 -0.003115 0.004415 0.000166 -0.003644 0.006161 0.000155 -0.004138 0.008162 0.000144 -0.004597 0.010398 0.000132 -0.005020 0.012852 0.000121 -0.005409 0.015506 0.000110 -0.005761 0.018342 0.000099 -0.006079 0.021341 0.000088 -0.006361 0.024485 0.000077 -0.006608 0.027757 0.000066 -0.006820 0.031139 0.000055 -0.006994 0.034614 0.000043 -0.007129 0.038162 0.000030 -0.007221 0.041761 0.000017 -0.007268 0.045373 0.000007 -0.007287 0.048964 0.000002 
</DataArray>
<DataArray type="Float32" Name="U0 " NumberOfComponents="3 " format="ascii">